 Gaussian 16, Revision B.01,
 Gaussian 16:  ES64L-G16RevB.01 20-Dec-2017

 -------------------------------------
 # rpbe1pbe def2tzvp stable=(opt,rrhf)
 -------------------------------------

 -----
 title
 -----
 Symbolic Z-matrix:
 Charge =  0 Multiplicity = 1

                         Standard orientation:
 ---------------------------------------------------------------------
 Center     Atomic      Atomic             Coordinates (Angstroms)
 Number     Number       Type             X           Y           Z
 ---------------------------------------------------------------------
      1          7           0        0.000000    0.000000    4.500000
      2          7           0        0.000000    0.000000   -4.500000
 ---------------------------------------------------------------------

 SCF Done:  E(RPBE1PBE) =  -108.743170338     A.U. after    8 cycles

 Unable to determine electronic state:  partially filled degenerate orbitals.
 Alpha  occ. eigenvalues --  -14.53479 -14.53479  -0.76493  -0.76489  -0.30349
 Alpha  occ. eigenvalues --   -0.30349  -0.26640
 Alpha virt. eigenvalues --   -0.25176  -0.20825  -0.20825   0.23785   0.23786
 Alpha virt. eigenvalues --    0.34292   0.34292   0.34509   0.34509   0.35081
 Alpha virt. eigenvalues --    0.35081   1.00896   1.00900   1.01122   1.01124

 Mulliken charges:
               1
     1  N   -0.000000
     2  N   -0.000000
 Sum of Mulliken charges =  -0.00000

 Dipole moment (field-independent basis, Debye):
    X=             -0.0000    Y=             -0.0000    Z=              0.0000  Tot=              0.0000
 Quadrupole moment (field-independent basis, Debye-Ang):
   XX=            -14.4991   YY=            -11.6863   ZZ=             -8.5929
   XY=             -0.0000   XZ=              0.0000   YZ=              0.0000

 1\1\GINC-XC06N05\Stability\RPBE1PBE\def2TZVP\N2\SRWANG\16-Sep-2021\0\\
 # rpbe1pbe def2tzvp stable=(opt,rrhf)\\title\\0,1\N,0,0.,0.,0.\N,0,0.,
 0.,9.\\Version=ES64L-G16RevB.01\HF=-108.7431703\RMSD=1.618e-09\Dipole=
 0.,0.,0.\Quadrupole=-2.1608139,-0.0695187,2.2303326,0.,0.,0.\PG=D*H [C
 *(N1.N1)]\\@

 QUANTUM MECHANICS IS BOHRING -- M.S. GORDON

 Normal termination of Gaussian 16 at Thu Sep 16 17:22:59 2021.
